LAMMPS Description

     21  atoms
     19  bonds
     0  angles
     0  dihedrals
     0  impropers

     1  atom types
     1  bond types
     0  angle types
     0  dihedral types
     0  improper types

  -20.0 20.0 xlo xhi
  -20.0 20.0 ylo yhi
  -20.0 20.0 zlo zhi

Masses

1 1.0  # a

Atoms  # full

1 1 1 0.0 0.0 0.0 0.0
2 1 1 0.0 0.0 0.0 0.0
3 1 1 0.0 1.0 0.0 0.0
4 1 1 0.0 2.0 0.0 0.0
5 1 1 0.0 3.0 0.0 0.0
6 1 1 0.0 4.0 0.0 0.0
7 1 1 0.0 5.0 0.0 0.0
8 1 1 0.0 6.0 0.0 0.0
9 1 1 0.0 7.0 0.0 0.0
10 1 1 0.0 8.0 0.0 0.0
11 1 1 0.0 9.0 0.0 0.0
12 1 1 0.0 10.0 0.0 0.0
13 1 1 0.0 11.0 0.0 0.0
14 1 1 0.0 12.0 0.0 0.0
15 1 1 0.0 13.0 0.0 0.0
16 1 1 0.0 14.0 0.0 0.0
17 1 1 0.0 15.0 0.0 0.0
18 1 1 0.0 16.0 0.0 0.0
19 1 1 0.0 17.0 0.0 0.0
20 1 1 0.0 18.0 0.0 0.0
21 1 1 0.0 19.0 0.0 0.0

Bonds

1 1 2 3
2 1 3 4
3 1 4 5
4 1 5 6
5 1 6 7
6 1 7 8
7 1 8 9
8 1 9 10
9 1 10 11
10 1 11 12
11 1 12 13
12 1 13 14
13 1 14 15
14 1 15 16
15 1 16 17
16 1 17 18
17 1 18 19
18 1 19 20
19 1 20 21

